 Gaussian 09, Revision D.01,
 Gaussian 09:  ES64L-G09RevD.01 24-Apr-2013

 -----------------------------------
 # td=nstates=6 cam-b3lyp svp nosymm
 -----------------------------------

 -----
 title
 -----
 Symbolic Z-matrix:
 Charge =  0 Multiplicity = 1

                          Input orientation:
 ---------------------------------------------------------------------
 Center     Atomic      Atomic             Coordinates (Angstroms)
 Number     Number       Type             X           Y           Z
 ---------------------------------------------------------------------
      1          6           0       18.810021    0.967874   -1.131773
      2          6           0       18.267760    0.119607   -0.196002
      3         16           0       19.522861   -0.658586    0.717947
      4          6           0       20.773004    0.162274   -0.163363
      5          6           0       20.227055    0.993568   -1.111410
      6          6           0       16.869307   -0.163576    0.072854
      7          6           0       16.326789   -1.142918    0.870810
      8          6           0       14.910393   -1.121886    0.900581
      9          6           0       14.364075   -0.127744    0.123853
     10         16           0       15.614993    0.794449   -0.651386
     11          6           0       12.964695    0.193943   -0.089576
     12         16           0       11.713526   -0.872938    0.469180
     13          6           0       10.459291    0.165325   -0.135018
     14          6           0       11.002259    1.276139   -0.736358
     15          6           0       12.418617    1.293184   -0.709163
     16          6           0        9.060863   -0.189474    0.025314
     17         16           0        7.807361    0.954807   -0.342353
     18          6           0        6.555724   -0.171144    0.083759
     19          6           0        7.101134   -1.366620    0.488418
     20          6           0        8.517410   -1.377449    0.454088
     21          6           0        5.156706    0.204165   -0.011495
     22          6           0        4.611834    1.446980   -0.232861
     23          6           0        3.195496    1.441245   -0.264296
     24          6           0        2.651381    0.194534   -0.064132
     25         16           0        3.904372   -0.986219    0.163212
     26          6           0        1.252619   -0.192039   -0.030057
     27         16           0        0.000000    1.010449   -0.000005
     28          6           0       -1.252620   -0.192039    0.030047
     29          6           0       -0.708131   -1.454513    0.017806
     30          6           0        0.708131   -1.454513   -0.017818
     31          1           0       10.396895    2.060011   -1.192532
     32          1           0       13.021811    2.097898   -1.130534
     33          1           0       14.307420   -1.818303    1.484060
     34          1           0       16.932558   -1.865260    1.418730
     35          1           0        9.122483   -2.240695    0.732811
     36          1           0        6.497559   -2.216376    0.808764
     37          1           0        5.215836    2.345231   -0.364338
     38          1           0        2.590952    2.332421   -0.435515
     39          1           0        1.312274   -2.362010   -0.039534
     40          1           0       -1.312275   -2.362010    0.039522
     41          1           0       18.204433    1.555248   -1.822658
     42          1           0       20.830523    1.613210   -1.775365
     43          6           0       22.174939   -0.069909    0.146667
     44         16           0       23.428479    0.533492   -0.892080
     45          6           0       24.660465   -0.118501    0.113984
     46          6           0       24.139813   -0.776047    1.191179
     47          6           0       22.717618   -0.749104    1.211288
     48          1           0       24.750213   -1.263098    1.951696
     49          1           0       25.708234    0.018496   -0.146935
     50          1           0       22.112073   -1.207955    1.993712
     51          6           0       -2.651382    0.194533    0.064122
     52          6           0       -3.195497    1.441245    0.264287
     53         16           0       -3.904372   -0.986220   -0.163223
     54          6           0       -4.611833    1.446980    0.232852
     55          1           0       -2.590950    2.332419    0.435507
     56          6           0       -5.156706    0.204164    0.011486
     57          1           0       -5.215837    2.345230    0.364331
     58          6           0       -6.555723   -0.171142   -0.083767
     59          6           0       -7.101135   -1.366618   -0.488427
     60         16           0       -7.807360    0.954807    0.342346
     61          6           0       -8.517409   -1.377448   -0.454096
     62          1           0       -6.497557   -2.216373   -0.808774
     63          6           0       -9.060862   -0.189472   -0.025320
     64          1           0       -9.122485   -2.240692   -0.732818
     65          6           0      -10.459290    0.165325    0.135014
     66          6           0      -11.002258    1.276139    0.736356
     67         16           0      -11.713525   -0.872936   -0.469184
     68          6           0      -12.418615    1.293184    0.709162
     69          1           0      -10.396891    2.060009    1.192529
     70          6           0      -12.964694    0.193943    0.089574
     71          1           0      -13.021810    2.097897    1.130534
     72          6           0      -14.364075   -0.127743   -0.123852
     73          6           0      -14.910394   -1.121885   -0.900580
     74         16           0      -15.614992    0.794449    0.651389
     75          6           0      -16.326789   -1.142917   -0.870807
     76          1           0      -14.307420   -1.818300   -1.484060
     77          6           0      -16.869307   -0.163575   -0.072850
     78          1           0      -16.932561   -1.865258   -1.418726
     79          6           0      -18.267760    0.119607    0.196008
     80          6           0      -18.810020    0.967873    1.131781
     81         16           0      -19.522862   -0.658585   -0.717939
     82          6           0      -20.227053    0.993567    1.111420
     83          1           0      -18.204429    1.555246    1.822664
     84          6           0      -20.773004    0.162273    0.163372
     85          1           0      -20.830522    1.613207    1.775375
     86          6           0      -22.174940   -0.069909   -0.146655
     87          6           0      -22.717621   -0.749104   -1.211276
     88         16           0      -23.428479    0.533490    0.892094
     89          6           0      -24.139816   -0.776046   -1.191165
     90          1           0      -22.112076   -1.207954   -1.993699
     91          6           0      -24.660467   -0.118501   -0.113969
     92          1           0      -24.750218   -1.263096   -1.951681
     93          1           0      -25.708235    0.018497    0.146952
 ---------------------------------------------------------------------

 SCF Done:  E(RCAM-B3LYP) =  -7170.73153643     A.U. after   15 cycles

 Excitation energies and oscillator strengths:

 Excited state symmetry could not be determined.
 Excited State   1:      Singlet-?Sym    2.7111 eV  457.32 nm  f=5.0715  <S**2>=0.000
     271 -> 278        0.13053
     272 -> 275        0.10029
     272 -> 277        0.20034
     273 -> 276       -0.31236
     274 -> 275        0.54941
 This state for optimization and/or second-order correction.
 Total Energy, E(TD-HF/TD-KS) =  -7170.63190603
 Copying the excited state density for this state as the 1-particle RhoCI density.

 Excited state symmetry could not be determined.
 Excited State   2:      Singlet-?Sym    2.9965 eV  413.77 nm  f=0.0000  <S**2>=0.000
     272 -> 276       -0.16330
     272 -> 278        0.12830
     273 -> 275       -0.40648
     273 -> 277        0.20852
     274 -> 276        0.43409

 Excited state symmetry could not be determined.
 Excited State   3:      Singlet-?Sym    3.3027 eV  375.40 nm  f=0.3976  <S**2>=0.000
     271 -> 276        0.11749
     272 -> 275        0.34956
     272 -> 277       -0.10022
     273 -> 276        0.33237
     273 -> 278       -0.16198
     274 -> 277        0.38458

 Excited state symmetry could not be determined.
 Excited State   4:      Singlet-?Sym    3.6023 eV  344.18 nm  f=0.0001  <S**2>=0.000
     271 -> 275        0.28977
     272 -> 276        0.30632
     273 -> 277       -0.31874
     273 -> 279        0.13072
     274 -> 278        0.34585

 Excited state symmetry could not be determined.
 Excited State   5:      Singlet-?Sym    3.8910 eV  318.65 nm  f=0.1313  <S**2>=0.000
     270 -> 275        0.23689
     271 -> 276       -0.26733
     272 -> 277        0.30056
     273 -> 278        0.30761
     273 -> 280       -0.10983
     274 -> 279        0.31482

 Excited state symmetry could not be determined.
 Excited State   6:      Singlet-?Sym    3.9948 eV  310.36 nm  f=0.0000  <S**2>=0.000
     270 -> 278        0.10654
     271 -> 277       -0.16315
     272 -> 276        0.26050
     272 -> 278        0.15317
     273 -> 275        0.39158
     273 -> 277        0.23312
     274 -> 276        0.34821

 Alpha  occ. eigenvalues --  -88.95351 -88.95347 -88.95347 -88.95331 -88.95331
 Alpha  occ. eigenvalues --  -88.95305 -88.95305 -88.95251 -88.95251 -88.95150
 Alpha  occ. eigenvalues --  -88.95150 -88.94957 -88.94957 -10.30675 -10.30674
 Alpha  occ. eigenvalues --  -10.30669 -10.30668 -10.30665 -10.30660 -10.30654
 Alpha  occ. eigenvalues --  -10.30654 -10.30649 -10.30649 -10.30626 -10.30626
 Alpha  occ. eigenvalues --  -10.30621 -10.30621 -10.30572 -10.30572 -10.30568
 Alpha  occ. eigenvalues --  -10.30568 -10.30461 -10.30461 -10.30441 -10.30441
 Alpha  occ. eigenvalues --  -10.30222 -10.30222 -10.28968 -10.28968 -10.27564
 Alpha  occ. eigenvalues --  -10.27559 -10.27558 -10.27547 -10.27547 -10.27537
 Alpha  occ. eigenvalues --  -10.27533 -10.27532 -10.27520 -10.27520 -10.27518
 Alpha  occ. eigenvalues --  -10.27518 -10.27487 -10.27487 -10.27474 -10.27474
 Alpha  occ. eigenvalues --  -10.27428 -10.27428 -10.27377 -10.27377 -10.27300
 Alpha  occ. eigenvalues --  -10.27300 -10.27095 -10.27095 -10.27068 -10.27068
 Alpha  occ. eigenvalues --   -8.04972  -8.04968  -8.04968  -8.04953  -8.04953
 Alpha  occ. eigenvalues --   -8.04926  -8.04926  -8.04873  -8.04873  -8.04773
 Alpha  occ. eigenvalues --   -8.04773  -8.04605  -8.04605  -6.01915  -6.01912
 Alpha  occ. eigenvalues --   -6.01912  -6.01896  -6.01896  -6.01870  -6.01870
 Alpha  occ. eigenvalues --   -6.01816  -6.01816  -6.01716  -6.01716  -6.01534
 Alpha  occ. eigenvalues --   -6.01534  -6.01505  -6.01502  -6.01502  -6.01487
 Alpha  occ. eigenvalues --   -6.01487  -6.01460  -6.01460  -6.01407  -6.01407
 Alpha  occ. eigenvalues --   -6.01306  -6.01306  -6.01126  -6.01122  -6.01122
 Alpha  occ. eigenvalues --   -6.01122  -6.01122  -6.01107  -6.01107  -6.01080
 Alpha  occ. eigenvalues --   -6.01080  -6.01027  -6.01027  -6.00929  -6.00929
 Alpha  occ. eigenvalues --   -6.00792  -6.00792  -0.99711  -0.99557  -0.99351
 Alpha  occ. eigenvalues --   -0.99090  -0.98770  -0.98394  -0.97967  -0.97501
 Alpha  occ. eigenvalues --   -0.97009  -0.96519  -0.96067  -0.95706  -0.95542
 Alpha  occ. eigenvalues --   -0.88202  -0.87665  -0.86921  -0.86035  -0.85086
 Alpha  occ. eigenvalues --   -0.84182  -0.83565  -0.83455  -0.83381  -0.83171
 Alpha  occ. eigenvalues --   -0.82872  -0.82832  -0.82405  -0.82355  -0.81929
 Alpha  occ. eigenvalues --   -0.81860  -0.81481  -0.81427  -0.81241  -0.80989
 Alpha  occ. eigenvalues --   -0.80095  -0.78975  -0.77838  -0.76813  -0.76030
 Alpha  occ. eigenvalues --   -0.75622  -0.70391  -0.70140  -0.69730  -0.69187
 Alpha  occ. eigenvalues --   -0.68546  -0.67841  -0.67091  -0.66317  -0.65534
 Alpha  occ. eigenvalues --   -0.64756  -0.64003  -0.63306  -0.62669  -0.62481
 Alpha  occ. eigenvalues --   -0.62058  -0.61361  -0.61131  -0.60900  -0.60726
 Alpha  occ. eigenvalues --   -0.60669  -0.60592  -0.60491  -0.60439  -0.60295
 Alpha  occ. eigenvalues --   -0.60275  -0.60246  -0.60194  -0.60105  -0.59854
 Alpha  occ. eigenvalues --   -0.59066  -0.57746  -0.56292  -0.54901  -0.53732
 Alpha  occ. eigenvalues --   -0.52926  -0.52474  -0.52220  -0.52052  -0.51989
 Alpha  occ. eigenvalues --   -0.49929  -0.49735  -0.49469  -0.49328  -0.49313
 Alpha  occ. eigenvalues --   -0.49126  -0.49013  -0.48935  -0.48704  -0.48632
 Alpha  occ. eigenvalues --   -0.48532  -0.48263  -0.48243  -0.48188  -0.48113
 Alpha  occ. eigenvalues --   -0.48054  -0.48006  -0.47958  -0.47927  -0.47614
 Alpha  occ. eigenvalues --   -0.46971  -0.46756  -0.46749  -0.46297  -0.45920
 Alpha  occ. eigenvalues --   -0.45903  -0.45806  -0.45764  -0.45698  -0.45608
 Alpha  occ. eigenvalues --   -0.45588  -0.45358  -0.45188  -0.45108  -0.44634
 Alpha  occ. eigenvalues --   -0.44492  -0.43992  -0.43793  -0.43360  -0.43306
 Alpha  occ. eigenvalues --   -0.42918  -0.42421  -0.42000  -0.41629  -0.41300
 Alpha  occ. eigenvalues --   -0.41014  -0.40769  -0.40564  -0.40391  -0.40248
 Alpha  occ. eigenvalues --   -0.40135  -0.40023  -0.40014  -0.38789  -0.37875
 Alpha  occ. eigenvalues --   -0.36691  -0.35341  -0.33891  -0.32645  -0.32553
 Alpha  occ. eigenvalues --   -0.32529  -0.32437  -0.32291  -0.32105  -0.31979
 Alpha  occ. eigenvalues --   -0.31904  -0.31760  -0.31605  -0.31481  -0.31388
 Alpha  occ. eigenvalues --   -0.31234  -0.31228  -0.30609  -0.29005  -0.27388
 Alpha  occ. eigenvalues --   -0.25828  -0.24404  -0.23233  -0.22484
 Alpha virt. eigenvalues --   -0.05122  -0.04346  -0.03287  -0.02062  -0.00757
 Alpha virt. eigenvalues --    0.00574   0.01899   0.03198   0.04461   0.05681
 Alpha virt. eigenvalues --    0.06724   0.06727   0.06841   0.06930   0.06940

 Mulliken charges:
               1
     1  C   -0.018643
     2  C   -0.041611
     3  S    0.119661
     4  C   -0.029743
     5  C   -0.021605
     6  C   -0.038051
     7  C   -0.019374
     8  C   -0.018712
     9  C   -0.039740
    10  S    0.120827
    11  C   -0.038790
    12  S    0.121125
    13  C   -0.039405
    14  C   -0.018632
    15  C   -0.018918
    16  C   -0.038968
    17  S    0.121232
    18  C   -0.039283
    19  C   -0.018702
    20  C   -0.018861
    21  C   -0.039028
    22  C   -0.018741
    23  C   -0.018713
    24  C   -0.039169
    25  S    0.121376
    26  C   -0.039120
    27  S    0.121325
    28  C   -0.039121
    29  C   -0.018741
    30  C   -0.018740
    31  H   -0.003196
    32  H   -0.003103
    33  H   -0.003441
    34  H   -0.003305
    35  H   -0.003049
    36  H   -0.003113
    37  H   -0.003009
    38  H   -0.003041
    39  H   -0.003021
    40  H   -0.003021
    41  H   -0.003777
    42  H   -0.003358
    43  C   -0.080496
    44  S    0.115373
    45  C   -0.083680
    46  C    0.034403
    47  C   -0.019557
    48  H    0.000250
    49  H    0.038049
    50  H   -0.001263
    51  C   -0.039170
    52  C   -0.018712
    53  S    0.121376
    54  C   -0.018740
    55  H   -0.003040
    56  C   -0.039029
    57  H   -0.003009
    58  C   -0.039285
    59  C   -0.018701
    60  S    0.121233
    61  C   -0.018860
    62  H   -0.003113
    63  C   -0.038970
    64  H   -0.003049
    65  C   -0.039405
    66  C   -0.018632
    67  S    0.121125
    68  C   -0.018917
    69  H   -0.003197
    70  C   -0.038791
    71  H   -0.003103
    72  C   -0.039740
    73  C   -0.018712
    74  S    0.120827
    75  C   -0.019374
    76  H   -0.003441
    77  C   -0.038052
    78  H   -0.003305
    79  C   -0.041611
    80  C   -0.018642
    81  S    0.119661
    82  C   -0.021603
    83  H   -0.003777
    84  C   -0.029745
    85  H   -0.003358
    86  C   -0.080496
    87  C   -0.019556
    88  S    0.115373
    89  C    0.034404
    90  H   -0.001263
    91  C   -0.083680
    92  H    0.000250
    93  H    0.038049
 Sum of Mulliken charges =   0.00000

 Dipole moment (field-independent basis, Debye):
    X=              0.0000    Y=             -0.1754    Z=              0.0000  Tot=              0.1754
 Quadrupole moment (field-independent basis, Debye-Ang):
   XX=           -357.7495   YY=           -444.6309   ZZ=           -469.1798
   XY=              0.0000   XZ=              9.6249   YZ=              0.0000

 Normal termination of Gaussian 09 at Fri May  6 15:49:36 2016.
