 Q-Chem 4.2, Q-Chem, Inc., Pleasanton, CA (2014).
 Q-Chem 4.2.0 for Intel X86 Linux

User input:
--------------------------------------------------------------
$rem
mem_total               20000
mem_static              200
exchange                m062x
basis                   6-31G*
max_cis_cycles          512
symmetry                off
sym_ignore              true
RPA                     true
cis_n_roots             4
cis_singlets            true
cis_triplets            false
$end

$molecule
0 1
Mg       36.1890245449  118.7565545072  114.3368036937
C        33.7579885801  118.8096019821  116.7984048503
C        36.5560136621  122.1300104292  114.6888431981
C        38.5946393587  118.6531074007  111.9429415069
C        35.7216768072  115.3141027286  114.0062822469
N        35.2879896115  120.2431662138  115.6042556990
C        34.3521769859  120.0443953508  116.5879841090
C        34.1374194054  121.3135004318  117.3975235815
C        34.6988715841  122.3938857994  116.4383137575
C        35.5976142539  121.5655093139  115.5211833251
C        33.5966455339  123.1196886107  115.6433799043
C        34.9256904413  121.2416532496  118.7314731733
C        34.5669583829  122.3672548952  119.7252584292
C        33.2117068117  122.1207043298  120.3620865520
O        32.9853609081  121.2245076605  121.1504406819
O        32.2763311552  122.9942663644  119.9340145227
N        37.3897603155  120.1569061878  113.4688697962
C        37.4028481849  121.5030204537  113.7484933934
C        38.3961534446  122.1648078600  112.9379123332
C        38.9949684034  121.1711935713  112.1565024380
C        38.3394514081  119.9177530555  112.5100512503
C        38.6897298538  123.6372815263  113.0051753124
C        40.0815491479  121.3004176045  111.1585075175
O        40.6236170375  120.3128691381  110.6611165447
C        40.5473475677  122.6783581645  110.7096445322
N        37.0305787127  117.2069002202  113.1537503338
C        37.9913519159  117.4302333269  112.2211507891
C        38.3405388574  116.1557272155  111.4582017438
C        37.5609483394  115.0627696870  112.2382306617
C        36.6981279967  115.8810329312  113.1958989386
C        37.9488442539  116.2446814268  109.9718205190
C        38.4654886568  114.0507388169  112.9752775792
C        39.2233697764  113.1093812483  112.0308462769
N        35.0014553380  117.3437148695  115.1578961603
C        34.9050213986  115.9761291114  114.9467093910
C        33.9032047363  115.3953764534  115.8175597001
C        33.4059661488  116.4710064766  116.5520746042
C        34.1026057359  117.6283269352  116.1171302454
C        33.5109814913  113.9515818433  115.8999068742
C        32.4776132191  116.8647244643  117.6078150992
O        31.7127431247  116.1943405889  118.2806217166
C        32.6354536192  118.4310996521  117.7751842158
C        31.3296741658  119.1562773231  117.4642553507
O        30.8771631649  120.0796336768  118.1129296132
O        30.7444226762  118.6730148852  116.3526584782
C        29.5002293169  119.2858700385  115.9664409374
C        30.9338197051  122.7646559036  120.4179489100
H        30.3348438167  123.5671307452  119.9861741163
H        33.1475948700  113.5750974315  114.9345176863
H        34.3586604886  113.3184756923  116.1948872656
H        32.7160987297  113.8135705417  116.6376907760
H        36.8740378946  116.4354811066  109.8631654095
H        38.4878312162  117.0525192440  109.4652130442
H        38.1817712950  115.3048019699  109.4565066246
H        38.5258300727  124.1364031334  112.0434724002
H        38.0544474281  124.1382455670  113.7387242148
H        39.7283389306  123.8322546712  113.2976193958
H        32.9782854973  122.4019318845  115.0908475160
H        32.9432180611  123.6789519573  116.3232637639
H        34.0258783634  123.8218967397  114.9200568998
H        28.7632731850  119.1804027793  116.7667605750
H        29.6508388736  120.3465153741  115.7466981256
H        29.1804406663  118.7478641414  115.0738250642
H        38.5267636336  112.5225887262  111.4181714406
H        39.8864844187  113.6555604837  111.3488766734
H        39.8440894627  112.4054954508  112.5975702619
H        39.7165853326  123.2754604043  110.3162420208
H        40.9936786744  123.2410723067  111.5368949389
H        41.2972676358  122.5416550740  109.9276120203
H        35.3051853139  122.3732917866  120.5349051948
H        34.5840377665  123.3477660505  119.2392977122
H        39.1749537755  114.5995067189  113.6105010703
H        37.8471776224  113.4512565118  113.6562101623
H        34.7507282429  120.2784291486  119.2230383387
H        35.9996623135  121.2894272114  118.5086266717
H        35.5794061038  114.2409102063  113.9070835318
H        39.3712606560  118.6448431030  111.1883568290
H        36.6582494574  123.2063710806  114.7822236330
H        32.8711405049  118.6579104540  118.8202604124
H        36.9150304647  114.4952062766  111.5528051977
H        35.2873587578  123.1420787308  116.9836696697
H        39.4224082398  115.9791252801  111.5180058057
H        33.0768880029  121.4767031229  117.6160532014
H        30.5824070944  121.7884262353  120.0771901476
H        30.9135292064  122.8108886839  121.5098391306
$end
--------------------------------------------------------------

             Standard Nuclear Orientation (Angstroms)
    I     Atom           X                Y                Z
 ----------------------------------------------------------------
    1      Mg     36.1890245449   118.7565545072   114.3368036937
    2      C      33.7579885801   118.8096019821   116.7984048503
    3      C      36.5560136621   122.1300104292   114.6888431981
    4      C      38.5946393587   118.6531074007   111.9429415069
    5      C      35.7216768072   115.3141027286   114.0062822469
    6      N      35.2879896115   120.2431662138   115.6042556990
    7      C      34.3521769859   120.0443953508   116.5879841090
    8      C      34.1374194054   121.3135004318   117.3975235815
    9      C      34.6988715841   122.3938857994   116.4383137575
   10      C      35.5976142539   121.5655093139   115.5211833251
   11      C      33.5966455339   123.1196886107   115.6433799043
   12      C      34.9256904413   121.2416532496   118.7314731733
   13      C      34.5669583829   122.3672548952   119.7252584292
   14      C      33.2117068117   122.1207043298   120.3620865520
   15      O      32.9853609081   121.2245076605   121.1504406819
   16      O      32.2763311552   122.9942663644   119.9340145227
   17      N      37.3897603155   120.1569061878   113.4688697962
   18      C      37.4028481849   121.5030204537   113.7484933934
   19      C      38.3961534446   122.1648078600   112.9379123332
   20      C      38.9949684034   121.1711935713   112.1565024380
   21      C      38.3394514081   119.9177530555   112.5100512503
   22      C      38.6897298538   123.6372815263   113.0051753124
   23      C      40.0815491479   121.3004176045   111.1585075175
   24      O      40.6236170375   120.3128691381   110.6611165447
   25      C      40.5473475677   122.6783581645   110.7096445322
   26      N      37.0305787127   117.2069002202   113.1537503338
   27      C      37.9913519159   117.4302333269   112.2211507891
   28      C      38.3405388574   116.1557272155   111.4582017438
   29      C      37.5609483394   115.0627696870   112.2382306617
   30      C      36.6981279967   115.8810329312   113.1958989386
   31      C      37.9488442539   116.2446814268   109.9718205190
   32      C      38.4654886568   114.0507388169   112.9752775792
   33      C      39.2233697764   113.1093812483   112.0308462769
   34      N      35.0014553380   117.3437148695   115.1578961603
   35      C      34.9050213986   115.9761291114   114.9467093910
   36      C      33.9032047363   115.3953764534   115.8175597001
   37      C      33.4059661488   116.4710064766   116.5520746042
   38      C      34.1026057359   117.6283269352   116.1171302454
   39      C      33.5109814913   113.9515818433   115.8999068742
   40      C      32.4776132191   116.8647244643   117.6078150992
   41      O      31.7127431247   116.1943405889   118.2806217166
   42      C      32.6354536192   118.4310996521   117.7751842158
   43      C      31.3296741658   119.1562773231   117.4642553507
   44      O      30.8771631649   120.0796336768   118.1129296132
   45      O      30.7444226762   118.6730148852   116.3526584782
   46      C      29.5002293169   119.2858700385   115.9664409374
   47      C      30.9338197051   122.7646559036   120.4179489100
   48      H      30.3348438167   123.5671307452   119.9861741163
   49      H      33.1475948700   113.5750974315   114.9345176863
   50      H      34.3586604886   113.3184756923   116.1948872656
   51      H      32.7160987297   113.8135705417   116.6376907760
   52      H      36.8740378946   116.4354811066   109.8631654095
   53      H      38.4878312162   117.0525192440   109.4652130442
   54      H      38.1817712950   115.3048019699   109.4565066246
   55      H      38.5258300727   124.1364031334   112.0434724002
   56      H      38.0544474281   124.1382455670   113.7387242148
   57      H      39.7283389306   123.8322546712   113.2976193958
   58      H      32.9782854973   122.4019318845   115.0908475160
   59      H      32.9432180611   123.6789519573   116.3232637639
   60      H      34.0258783634   123.8218967397   114.9200568998
   61      H      28.7632731850   119.1804027793   116.7667605750
   62      H      29.6508388736   120.3465153741   115.7466981256
   63      H      29.1804406663   118.7478641414   115.0738250642
   64      H      38.5267636336   112.5225887262   111.4181714406
   65      H      39.8864844187   113.6555604837   111.3488766734
   66      H      39.8440894627   112.4054954508   112.5975702619
   67      H      39.7165853326   123.2754604043   110.3162420208
   68      H      40.9936786744   123.2410723067   111.5368949389
   69      H      41.2972676358   122.5416550740   109.9276120203
   70      H      35.3051853139   122.3732917866   120.5349051948
   71      H      34.5840377665   123.3477660505   119.2392977122
   72      H      39.1749537755   114.5995067189   113.6105010703
   73      H      37.8471776224   113.4512565118   113.6562101623
   74      H      34.7507282429   120.2784291486   119.2230383387
   75      H      35.9996623135   121.2894272114   118.5086266717
   76      H      35.5794061038   114.2409102063   113.9070835318
   77      H      39.3712606560   118.6448431030   111.1883568290
   78      H      36.6582494574   123.2063710806   114.7822236330
   79      H      32.8711405049   118.6579104540   118.8202604124
   80      H      36.9150304647   114.4952062766   111.5528051977
   81      H      35.2873587578   123.1420787308   116.9836696697
   82      H      39.4224082398   115.9791252801   111.5180058057
   83      H      33.0768880029   121.4767031229   117.6160532014
   84      H      30.5824070944   121.7884262353   120.0771901476
   85      H      30.9135292064   122.8108886839   121.5098391306
 ----------------------------------------------------------------

   18   -2264.4676704666      9.38E-09 Convergence criterion met
 Total energy in the final basis set = -2264.4676704666

             TDDFT Excitation Energies
 ---------------------------------------------------

 Excited state   1: excitation energy (eV) =    1.7946
    Total energy for state   1:  -2264.401719917766
    Multiplicity: Singlet
    Trans. Mom.:  1.7451 X   2.0583 Y  -1.3099 Z
    Strength   :  0.3956
    X: D(170) --> V(  2) amplitude =  0.2440
    X: D(171) --> V(  1) amplitude =  0.9755

 Excited state   2: excitation energy (eV) =    2.3728
    Total energy for state   2:  -2264.380472178270
    Multiplicity: Singlet
    Trans. Mom.: -0.7753 X   0.8451 Y   0.9077 Z
    Strength   :  0.1244
    X: D(170) --> V(  1) amplitude =  0.9147
    X: D(171) --> V(  2) amplitude = -0.3907

 Excited state   3: excitation energy (eV) =    3.4584
    Total energy for state   3:  -2264.340576732772
    Multiplicity: Singlet
    Trans. Mom.:  0.0594 X  -0.0536 Y  -0.1180 Z
    Strength   :  0.0017
    X: D(166) --> V(  1) amplitude =  0.4596
    X: D(166) --> V(  3) amplitude = -0.3076
    X: D(166) --> V(  4) amplitude =  0.2605
    X: D(167) --> V(  1) amplitude =  0.5438
    X: D(167) --> V(  3) amplitude = -0.3474
    X: D(167) --> V(  4) amplitude =  0.2934

 Excited state   4: excitation energy (eV) =    3.5454
    Total energy for state   4:  -2264.337377689675
    Multiplicity: Singlet
    Trans. Mom.: -0.1178 X   0.1790 Y   0.1305 Z
    Strength   :  0.0055
    X: D(165) --> V(  1) amplitude =  0.6427
    X: D(165) --> V(  2) amplitude =  0.2618
    X: D(165) --> V(  3) amplitude =  0.4866
    X: D(165) --> V(  4) amplitude =  0.3921

 ---------------------------------------------------

                    Orbital Energies (a.u.)
 --------------------------------------------------------------

 Alpha MOs
 -- Occupied --
-47.526 -19.688 -19.679 -19.635 -19.627 -19.626 -19.621 -14.787
-14.783 -14.761 -14.756 -10.687 -10.674 -10.642 -10.640 -10.603
-10.600 -10.600 -10.596 -10.596 -10.591 -10.591 -10.589 -10.586
-10.577 -10.576 -10.575 -10.570 -10.570 -10.569 -10.566 -10.564
-10.563 -10.563 -10.562 -10.561 -10.560 -10.559 -10.557 -10.554
-10.550 -10.549 -10.547 -10.546 -10.546 -10.543 -10.542  -3.292
 -1.988  -1.984  -1.983  -1.229  -1.217  -1.151  -1.150  -1.135
 -1.123  -1.078  -1.069  -1.066  -1.057  -0.947  -0.920  -0.913
 -0.908  -0.899  -0.896  -0.888  -0.875  -0.856  -0.853  -0.839
 -0.831  -0.825  -0.815  -0.804  -0.792  -0.788  -0.779  -0.768
 -0.741  -0.731  -0.717  -0.703  -0.697  -0.685  -0.663  -0.659
 -0.654  -0.652  -0.639  -0.633  -0.609  -0.606  -0.597  -0.592
 -0.586  -0.578  -0.576  -0.566  -0.563  -0.561  -0.556  -0.552
 -0.549  -0.541  -0.536  -0.532  -0.528  -0.524  -0.519  -0.516
 -0.513  -0.506  -0.503  -0.501  -0.499  -0.493  -0.492  -0.492
 -0.487  -0.486  -0.483  -0.482  -0.479  -0.474  -0.470  -0.467
 -0.465  -0.459  -0.457  -0.455  -0.453  -0.451  -0.448  -0.446
 -0.443  -0.440  -0.437  -0.432  -0.431  -0.430  -0.428  -0.426
 -0.422  -0.420  -0.418  -0.415  -0.410  -0.406  -0.403  -0.402
 -0.396  -0.392  -0.384  -0.377  -0.372  -0.366  -0.363  -0.360
 -0.352  -0.344  -0.338  -0.326  -0.317  -0.310  -0.307  -0.300
 -0.295  -0.236  -0.207

          Ground-State Mulliken Net Atomic Charges

     Atom                 Charge (a.u.)
  ----------------------------------------
      1 Mg                    0.854315
      2 C                     0.044771
      3 C                    -0.275302
      4 C                    -0.273115
      5 C                    -0.262596
      6 N                    -0.654361
      7 C                     0.287082
      8 C                    -0.216073
      9 C                    -0.211849
     10 C                     0.347195
     11 C                    -0.471546
     12 C                    -0.305020
     13 C                    -0.375190
     14 C                     0.622225
     15 O                    -0.482146
     16 O                    -0.485999
     17 N                    -0.762991
     18 C                     0.324096
     19 C                     0.006683
     20 C                    -0.070514
     21 C                     0.319723
     22 C                    -0.546936
     23 C                     0.429419
     24 O                    -0.480949
     25 C                    -0.570167
     26 N                    -0.650276
     27 C                     0.348827
     28 C                    -0.211438
     29 C                    -0.207479
     30 C                     0.328529
     31 C                    -0.475796
     32 C                    -0.289753
     33 C                    -0.487557
     34 N                    -0.771774
     35 C                     0.281267
     36 C                     0.022167
     37 C                    -0.028253
     38 C                     0.305925
     39 C                    -0.542435
     40 C                     0.424117
     41 O                    -0.475546
     42 C                    -0.398640
     43 C                     0.685975
     44 O                    -0.496935
     45 O                    -0.482488
     46 C                    -0.242296
     47 C                    -0.255041
     48 H                     0.174284
     49 H                     0.178287
     50 H                     0.179202
     51 H                     0.208138
     52 H                     0.167150
     53 H                     0.179297
     54 H                     0.163474
     55 H                     0.185146
     56 H                     0.182110
     57 H                     0.187079
     58 H                     0.170423
     59 H                     0.176614
     60 H                     0.164253
     61 H                     0.190935
     62 H                     0.179234
     63 H                     0.187545
     64 H                     0.159202
     65 H                     0.163033
     66 H                     0.170305
     67 H                     0.181262
     68 H                     0.181933
     69 H                     0.200707
     70 H                     0.197369
     71 H                     0.178112
     72 H                     0.163198
     73 H                     0.159216
     74 H                     0.188636
     75 H                     0.168001
     76 H                     0.157131
     77 H                     0.213579
     78 H                     0.152293
     79 H                     0.226964
     80 H                     0.166031
     81 H                     0.162701
     82 H                     0.176385
     83 H                     0.192763
     84 H                     0.216242
     85 H                     0.179911
  ----------------------------------------
  Sum of atomic charges =     0.000000

                    Cartesian Multipole Moments
 -----------------------------------------------------------------
    Charge (ESU x 10^10)
                 0.0000
    Dipole Moment (Debye)
         X       1.1771      Y       3.1184      Z      -4.1801
       Tot       5.3463
    Quadrupole Moments (Debye-Ang)
        XX    -194.3209     XY     242.4204     YY     502.0359
        XZ       8.9730     YZ    -125.1854     ZZ   -1263.8036

 Total job time:  2436.04s(wall), 1968.59s(cpu)
        *  Thank you very much for using Q-Chem.  Have a nice day.  *
